<PP_INFO>
Generated using Fritz-Haber code                                                
Author: unknown    Generation date: as well                                     
Info: automatically converted from FHI format                                   
    1        The Pseudo was generated with a Scalar-Relativistic Calculation
nl pn  l   occ               Rcut            Rcut US             E pseu
6s  0  0  1.00      0.00000000000      0.00000000000      0.00000000000
6p  0  1  0.00      0.00000000000      0.00000000000      0.00000000000
5d  0  2 10.00      0.00000000000      0.00000000000      0.00000000000
</PP_INFO>


<PP_HEADER>
   0                   Version Number
  Au                   Element
   NC                  Norm - Conserving pseudopotential
    F                  Nonlinear Core Correction
SLA  PZ   NOGX NOGC    PZ   Exchange-Correlation functional
   11.00000000000      Z valence
    0.00000000000      Total energy
  0.0000000  0.0000000 Suggested cutoff for wfc and rho
    2                  Max angular momentum component
  567                  Number of points in mesh
    3    2             Number of Wavefunctions, Number of Projectors
 Wavefunctions         nl  l   occ
                       6s  0  1.00
                       6p  1  0.00
                       5d  2 10.00
</PP_HEADER>


<PP_MESH>
  <PP_R>
  7.91139240506E-05  8.10680379747E-05  8.30704185127E-05  8.51222578499E-05
  8.72247776188E-05  8.93792296260E-05  9.15868965978E-05  9.38490929437E-05
  9.61671655394E-05  9.85424945283E-05  1.00976494143E-04  1.03470613548E-04
  1.06026337703E-04  1.08645188244E-04  1.11328724394E-04  1.14078543887E-04
  1.16896283921E-04  1.19783622133E-04  1.22742277600E-04  1.25774011857E-04
  1.28880629950E-04  1.32063981509E-04  1.35325961853E-04  1.38668513110E-04
  1.42093625384E-04  1.45603337931E-04  1.49199740378E-04  1.52884973965E-04
  1.56661232822E-04  1.60530765273E-04  1.64495875175E-04  1.68558923292E-04
  1.72722328698E-04  1.76988570216E-04  1.81360187901E-04  1.85839784542E-04
  1.90430027220E-04  1.95133648892E-04  1.99953450020E-04  2.04892300236E-04
  2.09953140051E-04  2.15138982611E-04  2.20452915481E-04  2.25898102493E-04
  2.31477785625E-04  2.37195286930E-04  2.43054010517E-04  2.49057444577E-04
  2.55209163458E-04  2.61512829795E-04  2.67972196691E-04  2.74591109950E-04
  2.81373510365E-04  2.88323436071E-04  2.95445024942E-04  3.02742517058E-04
  3.10220257230E-04  3.17882697583E-04  3.25734400214E-04  3.33780039899E-04
  3.42024406884E-04  3.50472409735E-04  3.59129078255E-04  3.67999566488E-04
  3.77089155780E-04  3.86403257928E-04  3.95947418399E-04  4.05727319633E-04
  4.15748784428E-04  4.26017779403E-04  4.36540418555E-04  4.47322966893E-04
  4.58371844175E-04  4.69693628726E-04  4.81295061356E-04  4.93183049371E-04
  5.05364670691E-04  5.17847178057E-04  5.30638003355E-04  5.43744762038E-04
  5.57175257660E-04  5.70937486524E-04  5.85039642442E-04  5.99490121610E-04
  6.14297527614E-04  6.29470676546E-04  6.45018602256E-04  6.60950561732E-04
  6.77276040607E-04  6.94004758810E-04  7.11146676352E-04  7.28711999258E-04
  7.46711185640E-04  7.65154951925E-04  7.84054279238E-04  8.03420419935E-04
  8.23264904308E-04  8.43599547444E-04  8.64436456266E-04  8.85788036736E-04
  9.07667001243E-04  9.30086376174E-04  9.53059509665E-04  9.76600079554E-04
  1.00072210152E-03  1.02543993743E-03  1.05076830388E-03  1.07672228099E-03
  1.10331732133E-03  1.13056925916E-03  1.15849431987E-03  1.18710912957E-03
  1.21643072507E-03  1.24647656398E-03  1.27726453511E-03  1.30881296912E-03
  1.34114064946E-03  1.37426682350E-03  1.40821121404E-03  1.44299403103E-03
  1.47863598360E-03  1.51515829239E-03  1.55258270221E-03  1.59093149496E-03
  1.63022750288E-03  1.67049412220E-03  1.71175532702E-03  1.75403568360E-03
  1.79736036498E-03  1.84175516600E-03  1.88724651860E-03  1.93386150761E-03
  1.98162788685E-03  2.03057409565E-03  2.08072927581E-03  2.13212328893E-03
  2.18478673416E-03  2.23875096650E-03  2.29404811537E-03  2.35071110382E-03
  2.40877366808E-03  2.46827037769E-03  2.52923665601E-03  2.59170880142E-03
  2.65572400881E-03  2.72132039183E-03  2.78853700551E-03  2.85741386954E-03
  2.92799199212E-03  3.00031339433E-03  3.07442113517E-03  3.15035933721E-03
  3.22817321284E-03  3.30790909119E-03  3.38961444574E-03  3.47333792255E-03
  3.55912936924E-03  3.64703986466E-03  3.73712174932E-03  3.82942865653E-03
  3.92401554434E-03  4.02093872829E-03  4.12025591488E-03  4.22202623598E-03
  4.32631028400E-03  4.43317014802E-03  4.54266945067E-03  4.65487338611E-03
  4.76984875874E-03  4.88766402308E-03  5.00838932445E-03  5.13209654077E-03
  5.25885932533E-03  5.38875315066E-03  5.52185535348E-03  5.65824518071E-03
  5.79800383668E-03  5.94121453144E-03  6.08796253037E-03  6.23833520487E-03
  6.39242208443E-03  6.55031490992E-03  6.71210768819E-03  6.87789674809E-03
  7.04778079777E-03  7.22186098347E-03  7.40024094976E-03  7.58302690122E-03
  7.77032766568E-03  7.96225475902E-03  8.15892245157E-03  8.36044783613E-03
  8.56695089768E-03  8.77855458485E-03  8.99538488310E-03  9.21757088971E-03
  9.44524489069E-03  9.67854243949E-03  9.91760243774E-03  1.01625672180E-02
  1.04135826282E-02  1.06707981192E-02  1.09343668327E-02  1.12044456935E-02
  1.14811955021E-02  1.17647810310E-02  1.20553711225E-02  1.23531387892E-02
  1.26582613173E-02  1.29709203718E-02  1.32913021050E-02  1.36195972670E-02
  1.39560013195E-02  1.43007145521E-02  1.46539422015E-02  1.50158945739E-02
  1.53867871699E-02  1.57668408130E-02  1.61562817810E-02  1.65553419410E-02
  1.69642588870E-02  1.73832760815E-02  1.78126430007E-02  1.82526152828E-02
  1.87034548803E-02  1.91654302158E-02  1.96388163422E-02  2.01238951058E-02
  2.06209553149E-02  2.11302929112E-02  2.16522111461E-02  2.21870207614E-02
  2.27350401742E-02  2.32965956665E-02  2.38720215795E-02  2.44616605125E-02
  2.50658635272E-02  2.56849903563E-02  2.63194096181E-02  2.69694990357E-02
  2.76356456619E-02  2.83182461097E-02  2.90177067886E-02  2.97344441463E-02
  3.04688849167E-02  3.12214663742E-02  3.19926365936E-02  3.27828547175E-02
  3.35925912290E-02  3.44223282323E-02  3.52725597397E-02  3.61437919652E-02
  3.70365436268E-02  3.79513462544E-02  3.88887445068E-02  3.98492964962E-02
  4.08335741196E-02  4.18421634004E-02  4.28756648364E-02  4.39346937578E-02
  4.50198806936E-02  4.61318717468E-02  4.72713289789E-02  4.84389308047E-02
  4.96353723956E-02  5.08613660937E-02  5.21176418363E-02  5.34049475896E-02
  5.47240497951E-02  5.60757338250E-02  5.74608044505E-02  5.88800863204E-02
  6.03344244525E-02  6.18246847365E-02  6.33517544495E-02  6.49165427844E-02
  6.65199813912E-02  6.81630249315E-02  6.98466516474E-02  7.15718639430E-02
  7.33396889824E-02  7.51511793003E-02  7.70074134290E-02  7.89094965407E-02
  8.08585611053E-02  8.28557675646E-02  8.49023050234E-02  8.69993919575E-02
  8.91482769388E-02  9.13502393792E-02  9.36065902919E-02  9.59186730721E-02
  9.82878642970E-02  1.00715574545E-01  1.03203249236E-01  1.05752369493E-01
  1.08364453019E-01  1.11041055009E-01  1.13783769067E-01  1.16594228163E-01
  1.19474105599E-01  1.22425116007E-01  1.25449016373E-01  1.28547607077E-01
  1.31722732972E-01  1.34976284476E-01  1.38310198703E-01  1.41726460611E-01
  1.45227104188E-01  1.48814213661E-01  1.52489924739E-01  1.56256425880E-01
  1.60115959599E-01  1.64070823801E-01  1.68123373149E-01  1.72276020466E-01
  1.76531238171E-01  1.80891559754E-01  1.85359581280E-01  1.89937962938E-01
  1.94629430622E-01  1.99436777558E-01  2.04362865964E-01  2.09410628753E-01
  2.14583071284E-01  2.19883273144E-01  2.25314389991E-01  2.30879655424E-01
  2.36582382913E-01  2.42425967771E-01  2.48413889175E-01  2.54549712237E-01
  2.60837090130E-01  2.67279766256E-01  2.73881576482E-01  2.80646451421E-01
  2.87578418771E-01  2.94681605715E-01  3.01960241376E-01  3.09418659338E-01
  3.17061300224E-01  3.24892714339E-01  3.32917564384E-01  3.41140628224E-01
  3.49566801741E-01  3.58201101744E-01  3.67048668957E-01  3.76114771080E-01
  3.85404805926E-01  3.94924304632E-01  4.04678934957E-01  4.14674504650E-01
  4.24916964915E-01  4.35412413949E-01  4.46167100573E-01  4.57187427957E-01
  4.68479957428E-01  4.80051412376E-01  4.91908682262E-01  5.04058826714E-01
  5.16509079734E-01  5.29266854003E-01  5.42339745297E-01  5.55735537006E-01
  5.69462204770E-01  5.83527921228E-01  5.97941060882E-01  6.12710205086E-01
  6.27844147151E-01  6.43351897586E-01  6.59242689456E-01  6.75525983886E-01
  6.92211475688E-01  7.09309099137E-01  7.26829033886E-01  7.44781711023E-01
  7.63177819285E-01  7.82028311422E-01  8.01344410714E-01  8.21137617658E-01
  8.41419716815E-01  8.62202783820E-01  8.83499192580E-01  9.05321622637E-01
  9.27683066716E-01  9.50596838464E-01  9.74076580374E-01  9.98136271909E-01
  1.02279023783E+00  1.04805315670E+00  1.07394006967E+00  1.10046638939E+00
  1.12764790921E+00  1.15550081257E+00  1.18404168264E+00  1.21328751220E+00
  1.24325571375E+00  1.27396412988E+00  1.30543104389E+00  1.33767519067E+00
  1.37071576788E+00  1.40457244735E+00  1.43926538680E+00  1.47481524185E+00
  1.51124317832E+00  1.54857088483E+00  1.58682058568E+00  1.62601505415E+00
  1.66617762599E+00  1.70733221335E+00  1.74950331902E+00  1.79271605100E+00
  1.83699613746E+00  1.88236994205E+00  1.92886447962E+00  1.97650743227E+00
  2.02532716585E+00  2.07535274684E+00  2.12661395969E+00  2.17914132449E+00
  2.23296611521E+00  2.28812037826E+00  2.34463695160E+00  2.40254948430E+00
  2.46189245657E+00  2.52270120024E+00  2.58501191989E+00  2.64886171431E+00
  2.71428859865E+00  2.78133152704E+00  2.85003041576E+00  2.92042616703E+00
  2.99256069335E+00  3.06647694248E+00  3.14221892296E+00  3.21983173035E+00
  3.29936157409E+00  3.38085580497E+00  3.46436294336E+00  3.54993270806E+00
  3.63761604595E+00  3.72746516228E+00  3.81953355179E+00  3.91387603052E+00
  4.01054876847E+00  4.10960932305E+00  4.21111667333E+00  4.31513125517E+00
  4.42171499717E+00  4.53093135760E+00  4.64284536213E+00  4.75752364258E+00
  4.87503447655E+00  4.99544782812E+00  5.11883538947E+00  5.24527062359E+00
  5.37482880799E+00  5.50758707955E+00  5.64362448042E+00  5.78302200508E+00
  5.92586264861E+00  6.07223145603E+00  6.22221557299E+00  6.37590429765E+00
  6.53338913380E+00  6.69476384540E+00  6.86012451239E+00  7.02956958784E+00
  7.20319995666E+00  7.38111899559E+00  7.56343263478E+00  7.75024942086E+00
  7.94168058156E+00  8.13784009192E+00  8.33884474219E+00  8.54481420732E+00
  8.75587111824E+00  8.97214113486E+00  9.19375302090E+00  9.42083872051E+00
  9.65353343691E+00  9.89197571280E+00  1.01363075129E+01  1.03866743085E+01
  1.06432251639E+01  1.09061128254E+01  1.11754938122E+01  1.14515285094E+01
  1.17343812636E+01  1.20242204808E+01  1.23212187267E+01  1.26255528292E+01
  1.29374039841E+01  1.32569578625E+01  1.35844047217E+01  1.39199395183E+01
  1.42637620244E+01  1.46160769464E+01  1.49770940470E+01  1.53470282700E+01
  1.57260998682E+01  1.61145345350E+01  1.65125635380E+01  1.69204238574E+01
  1.73383583267E+01  1.77666157773E+01  1.82054511870E+01  1.86551258314E+01
  1.91159074394E+01  1.95880703531E+01  2.00718956909E+01  2.05676715144E+01
  2.10756930008E+01  2.15962626180E+01  2.21296903046E+01  2.26762936551E+01
  2.32363981084E+01  2.38103371417E+01  2.43984524691E+01  2.50010942451E+01
  2.56186212729E+01  2.62514012184E+01  2.68998108285E+01  2.75642361559E+01
  2.82450727890E+01  2.89427260869E+01  2.96576114212E+01  3.03901544233E+01
  3.11407912376E+01  3.19099687812E+01  3.26981450101E+01  3.35057891918E+01
  3.43333821848E+01  3.51814167248E+01  3.60503977179E+01  3.69408425415E+01
  3.78532813523E+01  3.87882574017E+01  3.97463273595E+01  4.07280616453E+01
  4.17340447680E+01  4.27648756737E+01  4.38211681029E+01  4.49035509550E+01
  4.60126686636E+01  4.71491815796E+01  4.83137663646E+01  4.95071163938E+01
  5.07299421687E+01  5.19829717403E+01  5.32669511423E+01  5.45826448355E+01
  5.59308361629E+01  5.73123278162E+01  5.87279423132E+01  6.01785224884E+01
  6.16649319938E+01  6.31880558141E+01  6.47488007927E+01  6.63480961723E+01
  6.79868941477E+01  6.96661704332E+01  7.13869248429E+01  7.31501818865E+01
  7.49569913791E+01  7.68084290661E+01  7.87055972641E+01
  </PP_R>
  <PP_RAB>
  1.93037079300E-06  1.97805095159E-06  2.02690881009E-06  2.07697345770E-06
  2.12827470211E-06  2.18084308725E-06  2.23470991150E-06  2.28990724632E-06
  2.34646795530E-06  2.40442571380E-06  2.46381502893E-06  2.52467126014E-06
  2.58703064027E-06  2.65093029708E-06  2.71640827542E-06  2.78350355982E-06
  2.85225609775E-06  2.92270682337E-06  2.99489768190E-06  3.06887165465E-06
  3.14467278452E-06  3.22234620229E-06  3.30193815349E-06  3.38349602588E-06
  3.46706837772E-06  3.55270496665E-06  3.64045677933E-06  3.73037606178E-06
  3.82251635050E-06  3.91693250436E-06  4.01368073722E-06  4.11281865143E-06
  4.21440527212E-06  4.31850108234E-06  4.42516805907E-06  4.53446971013E-06
  4.64647111197E-06  4.76123894844E-06  4.87884155046E-06  4.99934893676E-06
  5.12283285550E-06  5.24936682703E-06  5.37902618766E-06  5.51188813449E-06
  5.64803177141E-06  5.78753815617E-06  5.93049034863E-06  6.07697346024E-06
  6.22707470470E-06  6.38088344991E-06  6.53849127112E-06  6.69999200552E-06
  6.86548180806E-06  7.03505920872E-06  7.20882517117E-06  7.38688315290E-06
  7.56933916678E-06  7.75630184419E-06  7.94788249975E-06  8.14419519749E-06
  8.34535681887E-06  8.55148713229E-06  8.76270886446E-06  8.97914777341E-06
  9.20093272342E-06  9.42819576169E-06  9.66107219700E-06  9.89970068027E-06
  1.01442232871E-05  1.03947856023E-05  1.06515368066E-05  1.09146297658E-05
  1.11842211210E-05  1.14604713827E-05  1.17435450258E-05  1.20336105879E-05
  1.23308407695E-05  1.26354125365E-05  1.29475072261E-05  1.32673106546E-05
  1.35950132278E-05  1.39308100545E-05  1.42749010629E-05  1.46274911191E-05
  1.49887901498E-05  1.53590132664E-05  1.57383808941E-05  1.61271189022E-05
  1.65254587391E-05  1.69336375700E-05  1.73518984179E-05  1.77804903089E-05
  1.82196684195E-05  1.86696942294E-05  1.91308356769E-05  1.96033673181E-05
  2.00875704909E-05  2.05837334820E-05  2.10921516990E-05  2.16131278460E-05
  2.21469721038E-05  2.26940023147E-05  2.32545441719E-05  2.38289314130E-05
  2.44175060189E-05  2.50206184175E-05  2.56386276924E-05  2.62719017965E-05
  2.69208177708E-05  2.75857619698E-05  2.82671302904E-05  2.89653284086E-05
  2.96807720203E-05  3.04138870892E-05  3.11651101003E-05  3.19348883198E-05
  3.27236800613E-05  3.35319549588E-05  3.43601942463E-05  3.52088910441E-05
  3.60785506529E-05  3.69696908541E-05  3.78828422182E-05  3.88185484209E-05
  3.97773665669E-05  4.07598675211E-05  4.17666362489E-05  4.27982721643E-05
  4.38553894867E-05  4.49386176070E-05  4.60486014619E-05  4.71860019180E-05
  4.83514961654E-05  4.95457781207E-05  5.07695588403E-05  5.20235669436E-05
  5.33085490471E-05  5.46252702086E-05  5.59745143828E-05  5.73570848880E-05
  5.87738048848E-05  6.02255178654E-05  6.17130881567E-05  6.32374014342E-05
  6.47993652496E-05  6.63999095712E-05  6.80399873377E-05  6.97205750249E-05
  7.14426732280E-05  7.32073072567E-05  7.50155277460E-05  7.68684112813E-05
  7.87670610400E-05  8.07126074476E-05  8.27062088516E-05  8.47490522102E-05
  8.68423537998E-05  8.89873599387E-05  9.11853477292E-05  9.34376258181E-05
  9.57455351758E-05  9.81104498946E-05  1.00533778007E-04  1.03016962324E-04
  1.05561481293E-04  1.08168849881E-04  1.10840620473E-04  1.13578383799E-04
  1.16383769879E-04  1.19258448995E-04  1.22204132685E-04  1.25222574762E-04
  1.28315572359E-04  1.31484966996E-04  1.34732645681E-04  1.38060542029E-04
  1.41470637417E-04  1.44964962162E-04  1.48545596727E-04  1.52214672966E-04
  1.55974375388E-04  1.59826942460E-04  1.63774667939E-04  1.67819902237E-04
  1.71965053823E-04  1.76212590652E-04  1.80565041641E-04  1.85024998170E-04
  1.89595115624E-04  1.94278114980E-04  1.99076784420E-04  2.03993980996E-04
  2.09032632326E-04  2.14195738345E-04  2.19486373082E-04  2.24907686497E-04
  2.30462906353E-04  2.36155340140E-04  2.41988377042E-04  2.47965489955E-04
  2.54090237556E-04  2.60366266424E-04  2.66797313205E-04  2.73387206841E-04
  2.80139870850E-04  2.87059325660E-04  2.94149691004E-04  3.01415188372E-04
  3.08860143524E-04  3.16488989069E-04  3.24306267099E-04  3.32316631897E-04
  3.40524852705E-04  3.48935816566E-04  3.57554531236E-04  3.66386128157E-04
  3.75435865523E-04  3.84709131401E-04  3.94211446947E-04  4.03948469686E-04
  4.13925996887E-04  4.24149969011E-04  4.34626473245E-04  4.45361747134E-04
  4.56362182288E-04  4.67634328191E-04  4.79184896097E-04  4.91020763031E-04
  5.03148975878E-04  5.15576755582E-04  5.28311501445E-04  5.41360795531E-04
  5.54732407180E-04  5.68434297637E-04  5.82474624789E-04  5.96861748021E-04
  6.11604233198E-04  6.26710857758E-04  6.42190615944E-04  6.58052724158E-04
  6.74306626445E-04  6.90962000118E-04  7.08028761521E-04  7.25517071930E-04
  7.43437343607E-04  7.61800245994E-04  7.80616712070E-04  7.99897944858E-04
  8.19655424096E-04  8.39900913071E-04  8.60646465624E-04  8.81904433325E-04
  9.03687472828E-04  9.26008553407E-04  9.48880964676E-04  9.72318324504E-04
  9.96334587119E-04  1.02094405142E-03  1.04616136949E-03  1.07200155532E-03
  1.09847999373E-03  1.12561244958E-03  1.15341507708E-03  1.18190442949E-03
  1.21109746890E-03  1.24101157638E-03  1.27166456231E-03  1.30307467700E-03
  1.33526062153E-03  1.36824155888E-03  1.40203712538E-03  1.43666744238E-03
  1.47215312820E-03  1.50851531047E-03  1.54577563864E-03  1.58395629691E-03
  1.62308001745E-03  1.66317009388E-03  1.70425039520E-03  1.74634537996E-03
  1.78948011084E-03  1.83368026958E-03  1.87897217224E-03  1.92538278490E-03
  1.97293973968E-03  2.02167135125E-03  2.07160663363E-03  2.12277531748E-03
  2.17520786782E-03  2.22893550216E-03  2.28399020906E-03  2.34040476722E-03
  2.39821276497E-03  2.45744862027E-03  2.51814760119E-03  2.58034584694E-03
  2.64408038936E-03  2.70938917498E-03  2.77631108760E-03  2.84488597146E-03
  2.91515465496E-03  2.98715897493E-03  3.06094180161E-03  3.13654706411E-03
  3.21401977660E-03  3.29340606508E-03  3.37475319489E-03  3.45810959880E-03
  3.54352490589E-03  3.63104997107E-03  3.72073690535E-03  3.81263910691E-03
  3.90681129285E-03  4.00330953179E-03  4.10219127722E-03  4.20351540177E-03
  4.30734223219E-03  4.41373358533E-03  4.52275280489E-03  4.63446479917E-03
  4.74893607971E-03  4.86623480088E-03  4.98643080046E-03  5.10959564123E-03
  5.23580265357E-03  5.36512697911E-03  5.49764561549E-03  5.63343746220E-03
  5.77258336751E-03  5.91516617669E-03  6.06127078126E-03  6.21098416955E-03
  6.36439547854E-03  6.52159604686E-03  6.68267946922E-03  6.84774165211E-03
  7.01688087091E-03  7.19019782843E-03  7.36779571479E-03  7.54978026894E-03
  7.73625984159E-03  7.92734545967E-03  8.12315089253E-03  8.32379271957E-03
  8.52939039975E-03  8.74006634262E-03  8.95594598128E-03  9.17715784702E-03
  9.40383364584E-03  9.63610833689E-03  9.87412021282E-03  1.01180109821E-02
  1.03679258533E-02  1.06240136219E-02  1.08864267584E-02  1.11553214993E-02
  1.14308579403E-02  1.17132001315E-02  1.20025161747E-02  1.22989783242E-02
  1.26027630888E-02  1.29140513371E-02  1.32330284051E-02  1.35598842068E-02
  1.38948133467E-02  1.42380152363E-02  1.45896942127E-02  1.49500596597E-02
  1.53193261333E-02  1.56977134888E-02  1.60854470120E-02  1.64827575532E-02
  1.68898816647E-02  1.73070617419E-02  1.77345461669E-02  1.81725894572E-02
  1.86214524168E-02  1.90814022915E-02  1.95527129281E-02  2.00356649374E-02
  2.05305458614E-02  2.10376503441E-02  2.15572803076E-02  2.20897451312E-02
  2.26353618360E-02  2.31944552733E-02  2.37673583186E-02  2.43544120691E-02
  2.49559660472E-02  2.55723784085E-02  2.62040161552E-02  2.68512553542E-02
  2.75144813615E-02  2.81940890511E-02  2.88904830507E-02  2.96040779820E-02
  3.03352987082E-02  3.10845805863E-02  3.18523697268E-02  3.26391232590E-02
  3.34453096035E-02  3.42714087507E-02  3.51179125469E-02  3.59853249868E-02
  3.68741625140E-02  3.77849543280E-02  3.87182427000E-02  3.96745832946E-02
  4.06545455020E-02  4.16587127759E-02  4.26876829815E-02  4.37420687511E-02
  4.48224978493E-02  4.59296135462E-02  4.70640750007E-02  4.82265576533E-02
  4.94177536273E-02  5.06383721419E-02  5.18891399338E-02  5.31708016902E-02
  5.44841204919E-02  5.58298782681E-02  5.72088762613E-02  5.86219355049E-02
  6.00698973119E-02  6.15536237755E-02  6.30739982828E-02  6.46319260403E-02
  6.62283346135E-02  6.78641744785E-02  6.95404195881E-02  7.12580679519E-02
  7.30181422304E-02  7.48216903434E-02  7.66697860949E-02  7.85635298115E-02
  8.05040489978E-02  8.24924990081E-02  8.45300637336E-02  8.66179563078E-02
  8.87574198286E-02  9.09497280984E-02  9.31961863824E-02  9.54981321860E-02
  9.78569360510E-02  1.00274002371E-01  1.02750770230E-01  1.05288714255E-01
  1.07889345497E-01  1.10554212331E-01  1.13284901375E-01  1.16083038439E-01
  1.18950289489E-01  1.21888361639E-01  1.24899004171E-01  1.27984009574E-01
  1.31145214611E-01  1.34384501412E-01  1.37703798597E-01  1.41105082422E-01
  1.44590377958E-01  1.48161760293E-01  1.51821355773E-01  1.55571343260E-01
  1.59413955439E-01  1.63351480138E-01  1.67386261698E-01  1.71520702361E-01
  1.75757263710E-01  1.80098468123E-01  1.84546900286E-01  1.89105208723E-01
  1.93776107379E-01  1.98562377231E-01  2.03466867948E-01  2.08492499587E-01
  2.13642264327E-01  2.18919228255E-01  2.24326533193E-01  2.29867398563E-01
  2.35545123308E-01  2.41363087853E-01  2.47324756123E-01  2.53433677600E-01
  2.59693489436E-01  2.66107918625E-01  2.72680784216E-01  2.79415999586E-01
  2.86317574775E-01  2.93389618872E-01  3.00636342459E-01  3.08062060117E-01
  3.15671193002E-01  3.23468271469E-01  3.31457937775E-01  3.39644948838E-01
  3.48034179074E-01  3.56630623297E-01  3.65439399692E-01  3.74465752865E-01
  3.83715056961E-01  3.93192818868E-01  4.02904681494E-01  4.12856427126E-01
  4.23053980877E-01  4.33503414204E-01  4.44210948535E-01  4.55182958964E-01
  4.66425978050E-01  4.77946699708E-01  4.89751983191E-01  5.01848857176E-01
  5.14244523948E-01  5.26946363689E-01  5.39961938873E-01  5.53298998763E-01
  5.66965484032E-01  5.80969531488E-01  5.95319478915E-01  6.10023870045E-01
  6.25091459635E-01  6.40531218688E-01  6.56352339789E-01  6.72564242582E-01
  6.89176579374E-01  7.06199240884E-01  7.23642362134E-01  7.41516328479E-01
  7.59831781792E-01  7.78599626803E-01  7.97831037585E-01  8.17537464213E-01
  8.37730639579E-01  8.58422586377E-01  8.79625624260E-01  9.01352377180E-01
  9.23615780896E-01  9.46429090684E-01  9.69805889224E-01  9.93760094688E-01
  1.01830596903E+00  1.04345812646E+00  1.06923154219E+00  1.09564156128E+00
  1.12270390784E+00  1.15043469436E+00  1.17885043132E+00  1.20796803697E+00
  1.23780484748E+00  1.26837862721E+00  1.29970757931E+00  1.33181035652E+00
  1.36470607232E+00  1.39841431231E+00  1.43295514582E+00  1.46834913792E+00
  1.50461736163E+00  1.54178141046E+00  1.57986341130E+00  1.61888603756E+00
  1.65887252269E+00  1.69984667400E+00  1.74183288685E+00  1.78485615915E+00
  1.82894210628E+00  1.87411697631E+00  1.92040766562E+00
  </PP_RAB>
</PP_MESH>


<PP_LOCAL>
 -1.15738014654E+01 -1.15738015257E+01 -1.15738015845E+01 -1.15738016419E+01
 -1.15738016979E+01 -1.15738017526E+01 -1.15738018060E+01 -1.15738018580E+01
 -1.15738019088E+01 -1.15738019584E+01 -1.15738020068E+01 -1.15738020540E+01
 -1.15738021000E+01 -1.15738021450E+01 -1.15738021889E+01 -1.15738022317E+01
 -1.15738022734E+01 -1.15738023142E+01 -1.15738023539E+01 -1.15738023928E+01
 -1.15738024306E+01 -1.15738024676E+01 -1.15738025036E+01 -1.15738025388E+01
 -1.15738025731E+01 -1.15738026066E+01 -1.15738026392E+01 -1.15738026711E+01
 -1.15738027022E+01 -1.15738027325E+01 -1.15738027621E+01 -1.15738027910E+01
 -1.15738028192E+01 -1.15738028466E+01 -1.15738028735E+01 -1.15738028996E+01
 -1.15738029251E+01 -1.15738029500E+01 -1.15738029742E+01 -1.15738029979E+01
 -1.15738030210E+01 -1.15738030435E+01 -1.15738030654E+01 -1.15738030868E+01
 -1.15738031077E+01 -1.15738031280E+01 -1.15738031479E+01 -1.15738031672E+01
 -1.15738031860E+01 -1.15738032044E+01 -1.15738032223E+01 -1.15738032398E+01
 -1.15738032568E+01 -1.15738032733E+01 -1.15738032894E+01 -1.15738033051E+01
 -1.15738033204E+01 -1.15738033353E+01 -1.15738033498E+01 -1.15738033639E+01
 -1.15738033777E+01 -1.15738033910E+01 -1.15738034040E+01 -1.15738034167E+01
 -1.15738034289E+01 -1.15738034409E+01 -1.15738034525E+01 -1.15738034637E+01
 -1.15738034746E+01 -1.15738034852E+01 -1.15738034955E+01 -1.15738035055E+01
 -1.15738035151E+01 -1.15738035245E+01 -1.15738035335E+01 -1.15738035422E+01
 -1.15738035507E+01 -1.15738035588E+01 -1.15738035667E+01 -1.15738035742E+01
 -1.15738035815E+01 -1.15738035885E+01 -1.15738035952E+01 -1.15738036016E+01
 -1.15738036077E+01 -1.15738036136E+01 -1.15738036191E+01 -1.15738036244E+01
 -1.15738036294E+01 -1.15738036341E+01 -1.15738036386E+01 -1.15738036427E+01
 -1.15738036465E+01 -1.15738036501E+01 -1.15738036533E+01 -1.15738036563E+01
 -1.15738036589E+01 -1.15738036613E+01 -1.15738036633E+01 -1.15738036650E+01
 -1.15738036664E+01 -1.15738036675E+01 -1.15738036682E+01 -1.15738036685E+01
 -1.15738036686E+01 -1.15738036682E+01 -1.15738036675E+01 -1.15738036664E+01
 -1.15738036649E+01 -1.15738036630E+01 -1.15738036607E+01 -1.15738036579E+01
 -1.15738036548E+01 -1.15738036511E+01 -1.15738036470E+01 -1.15738036424E+01
 -1.15738036372E+01 -1.15738036316E+01 -1.15738036254E+01 -1.15738036186E+01
 -1.15738036112E+01 -1.15738036032E+01 -1.15738035945E+01 -1.15738035852E+01
 -1.15738035752E+01 -1.15738035645E+01 -1.15738035529E+01 -1.15738035406E+01
 -1.15738035275E+01 -1.15738035135E+01 -1.15738034985E+01 -1.15738034827E+01
 -1.15738034658E+01 -1.15738034479E+01 -1.15738034288E+01 -1.15738034087E+01
 -1.15738033873E+01 -1.15738033647E+01 -1.15738033407E+01 -1.15738033154E+01
 -1.15738032886E+01 -1.15738032603E+01 -1.15738032304E+01 -1.15738031987E+01
 -1.15738031653E+01 -1.15738031301E+01 -1.15738030929E+01 -1.15738030536E+01
 -1.15738030122E+01 -1.15738029684E+01 -1.15738029223E+01 -1.15738028737E+01
 -1.15738028224E+01 -1.15738027682E+01 -1.15738027112E+01 -1.15738026510E+01
 -1.15738025875E+01 -1.15738025206E+01 -1.15738024500E+01 -1.15738023756E+01
 -1.15738022971E+01 -1.15738022143E+01 -1.15738021270E+01 -1.15738020349E+01
 -1.15738019377E+01 -1.15738018352E+01 -1.15738017270E+01 -1.15738016129E+01
 -1.15738014924E+01 -1.15738013652E+01 -1.15738012309E+01 -1.15738010891E+01
 -1.15738009394E+01 -1.15738007812E+01 -1.15738006140E+01 -1.15738004374E+01
 -1.15738002507E+01 -1.15738000532E+01 -1.15737998444E+01 -1.15737996235E+01
 -1.15737993898E+01 -1.15737991424E+01 -1.15737988804E+01 -1.15737986029E+01
 -1.15737983089E+01 -1.15737979973E+01 -1.15737976670E+01 -1.15737973166E+01
 -1.15737969448E+01 -1.15737965501E+01 -1.15737961311E+01 -1.15737956859E+01
 -1.15737952128E+01 -1.15737947097E+01 -1.15737941746E+01 -1.15737936052E+01
 -1.15737929988E+01 -1.15737923530E+01 -1.15737916646E+01 -1.15737909307E+01
 -1.15737901477E+01 -1.15737893119E+01 -1.15737884193E+01 -1.15737874656E+01
 -1.15737864459E+01 -1.15737853552E+01 -1.15737841878E+01 -1.15737829376E+01
 -1.15737815979E+01 -1.15737801617E+01 -1.15737786209E+01 -1.15737769671E+01
 -1.15737751908E+01 -1.15737732820E+01 -1.15737712294E+01 -1.15737690210E+01
 -1.15737666435E+01 -1.15737640825E+01 -1.15737613222E+01 -1.15737583452E+01
 -1.15737551329E+01 -1.15737516644E+01 -1.15737479173E+01 -1.15737438669E+01
 -1.15737394861E+01 -1.15737347453E+01 -1.15737296122E+01 -1.15737240511E+01
 -1.15737180233E+01 -1.15737114861E+01 -1.15737043928E+01 -1.15736966922E+01
 -1.15736883280E+01 -1.15736792387E+01 -1.15736693566E+01 -1.15736586077E+01
 -1.15736469105E+01 -1.15736341757E+01 -1.15736203053E+01 -1.15736051917E+01
 -1.15735887167E+01 -1.15735707507E+01 -1.15735511510E+01 -1.15735297614E+01
 -1.15735064099E+01 -1.15734809079E+01 -1.15734530480E+01 -1.15734226026E+01
 -1.15733893216E+01 -1.15733529304E+01 -1.15733131271E+01 -1.15732695804E+01
 -1.15732219263E+01 -1.15731697650E+01 -1.15731126576E+01 -1.15730501220E+01
 -1.15729816290E+01 -1.15729065976E+01 -1.15728243903E+01 -1.15727343072E+01
 -1.15726355807E+01 -1.15725273690E+01 -1.15724087486E+01 -1.15722787076E+01
 -1.15721361370E+01 -1.15719798221E+01 -1.15718084332E+01 -1.15716205149E+01
 -1.15714144756E+01 -1.15711885756E+01 -1.15709409145E+01 -1.15706694182E+01
 -1.15703718243E+01 -1.15700456678E+01 -1.15696882651E+01 -1.15692966979E+01
 -1.15688677964E+01 -1.15683981218E+01 -1.15678839487E+01 -1.15673212476E+01
 -1.15667056666E+01 -1.15660325145E+01 -1.15652967439E+01 -1.15644929356E+01
 -1.15636152843E+01 -1.15626575861E+01 -1.15616132293E+01 -1.15604751867E+01
 -1.15592360130E+01 -1.15578878452E+01 -1.15564224084E+01 -1.15548310264E+01
 -1.15531046387E+01 -1.15512338224E+01 -1.15492088222E+01 -1.15470195849E+01
 -1.15446558018E+01 -1.15421069564E+01 -1.15393623773E+01 -1.15364112963E+01
 -1.15332429098E+01 -1.15298464426E+01 -1.15262112124E+01 -1.15223266939E+01
 -1.15181825811E+01 -1.15137688449E+01 -1.15090757869E+01 -1.15040940852E+01
 -1.14988148347E+01 -1.14932295772E+01 -1.14873303252E+01 -1.14811095754E+01
 -1.14745603152E+01 -1.14676760214E+01 -1.14604506517E+01 -1.14528786319E+01
 -1.14449548378E+01 -1.14366745745E+01 -1.14280335543E+01 -1.14190278743E+01
 -1.14096539954E+01 -1.13999087227E+01 -1.13897891905E+01 -1.13792928498E+01
 -1.13684174624E+01 -1.13571610995E+01 -1.13455221467E+01 -1.13334993153E+01
 -1.13210916605E+01 -1.13082986065E+01 -1.12951199785E+01 -1.12815560420E+01
 -1.12676075494E+01 -1.12532757938E+01 -1.12385626704E+01 -1.12234707445E+01
 -1.12080033281E+01 -1.11921645630E+01 -1.11759595112E+01 -1.11593942539E+01
 -1.11424759968E+01 -1.11252131837E+01 -1.11076156172E+01 -1.10896945870E+01
 -1.10714630059E+01 -1.10529355530E+01 -1.10341288245E+01 -1.10150614906E+01